! Touchstone hspice generated S parameters
! Date: 04-11-02
!         freq    s11           s11           s12           s12           s21           s21           s22           s22         
!                    real          imag          real          imag          real          imag          real          imag     
# HZ S RI R 50
  0.0000000e+07  0 0  1 0  1 0 0 0
  2.0000000e+07  5.157331e-02  3.227208e-03  8.477571e-01 -4.168652e-01  8.477571e-01 -4.168652e-01  5.157331e-02  3.227208e-03
  4.0000000e+07  5.468708e-02 -1.169098e-02  5.783050e-01 -7.316837e-01  5.783050e-01 -7.316837e-01  5.468708e-02 -1.169098e-02
  6.0000000e+07  4.596536e-02 -2.668612e-02  2.064888e-01 -8.992016e-01  2.064888e-01 -8.992016e-01  4.596536e-02 -2.668612e-02
  8.0000000e+07  2.925529e-02 -3.366987e-02 -1.962779e-01 -8.922479e-01 -1.962779e-01 -8.922479e-01  2.925529e-02 -3.366987e-02
  1.0000000e+08  1.218594e-02 -2.938053e-02 -5.536648e-01 -7.160176e-01 -5.536648e-01 -7.160176e-01  1.218594e-02 -2.938053e-02
  1.2000000e+08  2.319920e-03 -1.665940e-02 -7.991627e-01 -4.073341e-01 -7.991627e-01 -4.073341e-01  2.319920e-03 -1.665940e-02
  1.4000000e+08  3.029892e-03 -2.664483e-03 -8.887208e-01 -2.725355e-02 -8.887208e-01 -2.725355e-02  3.029892e-03 -2.664483e-03
  1.6000000e+08  1.177364e-02  5.339135e-03 -8.086585e-01  3.511002e-01 -8.086585e-01  3.511002e-01  1.177364e-02  5.339135e-03
  1.8000000e+08  2.186661e-02  4.133732e-03 -5.773864e-01  6.566272e-01 -5.773864e-01  6.566272e-01  2.186661e-02  4.133732e-03
  2.0000000e+08  2.663484e-02 -3.856960e-03 -2.410807e-01  8.333370e-01 -2.410807e-01  8.333370e-01  2.663484e-02 -3.856960e-03
  2.2000000e+08  2.336256e-02 -1.242641e-02  1.354121e-01  8.502230e-01  1.354121e-01  8.502230e-01  2.336256e-02 -1.242641e-02
  2.4000000e+08  1.463041e-02 -1.564230e-02  4.807309e-01  7.065451e-01  4.807309e-01  7.065451e-01  1.463041e-02 -1.564230e-02
  2.6000000e+08  6.310096e-03 -1.151433e-02  7.302896e-01  4.316976e-01  7.302896e-01  4.316976e-01  6.310096e-03 -1.151433e-02
  2.8000000e+08  3.597127e-03 -2.980379e-03  8.384143e-01  7.945061e-02  8.384143e-01  7.945061e-02  3.597127e-03 -2.980379e-03
  3.0000000e+08  7.694753e-03  4.317891e-03  7.868637e-01 -2.825697e-01  7.868637e-01 -2.825697e-01  7.694753e-03  4.317891e-03
  3.2000000e+08  1.527332e-02  5.890817e-03  5.878552e-01 -5.860241e-01  5.878552e-01 -5.860241e-01  1.527332e-02  5.890817e-03
  3.4000000e+08  2.092762e-02  1.287392e-03  2.810990e-01 -7.747906e-01  2.810990e-01 -7.747906e-01  2.092762e-02  1.287392e-03
  3.6000000e+08  2.086618e-02 -5.834854e-03 -7.421628e-02 -8.151524e-01 -7.421628e-02 -8.151524e-01  2.086618e-02 -5.834854e-03
  3.8000000e+08  1.534052e-02 -1.036026e-02 -4.107168e-01 -7.016111e-01 -4.107168e-01 -7.016111e-01  1.534052e-02 -1.036026e-02
  4.0000000e+08  8.268789e-03 -9.205221e-03 -6.654122e-01 -4.575476e-01 -6.654122e-01 -4.575476e-01  8.268789e-03 -9.205221e-03
  4.2000000e+08  4.423589e-03 -3.290363e-03 -7.914371e-01 -1.306081e-01 -7.914371e-01 -1.306081e-01  4.423589e-03 -3.290363e-03
  4.4000000e+08  6.166186e-03  3.269573e-03 -7.667867e-01  2.165151e-01 -7.667867e-01  2.165151e-01  6.166186e-03  3.269573e-03
  4.6000000e+08  1.195337e-02  6.104618e-03 -5.982065e-01  5.181976e-01 -5.982065e-01  5.181976e-01  1.195337e-02  6.104618e-03
  4.8000000e+08  1.756237e-02  3.575183e-03 -3.194318e-01  7.183803e-01 -3.194318e-01  7.183803e-01  1.756237e-02  3.575183e-03
  5.0000000e+08  1.908636e-02 -2.230378e-03  1.567120e-02  7.809086e-01  1.567120e-02  7.809086e-01  1.908636e-02 -2.230378e-03
  5.2000000e+08  1.558696e-02 -7.079992e-03  3.434853e-01  6.958905e-01  3.434853e-01  6.958905e-01  1.558696e-02 -7.079992e-03
  5.4000000e+08  9.613947e-03 -7.579711e-03  6.025692e-01  4.811590e-01  6.025692e-01  4.811590e-01  9.613947e-03 -7.579711e-03
  5.6000000e+08  5.319379e-03 -3.468141e-03  7.450836e-01  1.786776e-01  7.450836e-01  1.786776e-01  5.319379e-03 -3.468141e-03
  5.8000000e+08  5.540278e-03  2.323010e-03  7.456840e-01 -1.535535e-01  7.456840e-01 -1.535535e-01  5.540278e-03  2.323010e-03
  6.0000000e+08  9.891214e-03  5.810294e-03  6.061008e-01 -4.526547e-01  6.061008e-01 -4.526547e-01  9.891214e-03  5.810294e-03
  6.2000000e+08  1.515041e-02  4.748924e-03  3.544351e-01 -6.628609e-01  3.544351e-01 -6.628609e-01  1.515041e-02  4.748924e-03
  6.4000000e+08  1.759122e-02  1.196067e-04  3.941378e-02 -7.459047e-01  3.941378e-02 -7.459047e-01  1.759122e-02  1.196067e-04
  6.6000000e+08  1.557655e-02 -4.667132e-03 -2.790655e-01 -6.878549e-01 -2.790655e-01 -6.878549e-01  1.557655e-02 -4.667132e-03
  6.8000000e+08  1.061720e-02 -6.216483e-03 -5.412214e-01 -5.013446e-01 -5.412214e-01 -5.013446e-01  1.061720e-02 -6.216483e-03
  7.0000000e+08  6.217292e-03 -3.500791e-03 -6.985112e-01 -2.229312e-01 -6.985112e-01 -2.229312e-01  6.217292e-03 -3.500791e-03
  7.2000000e+08  5.375469e-03  1.505800e-03 -7.226368e-01  9.396125e-02 -7.226368e-01  9.396125e-02  5.375469e-03  1.505800e-03
  7.4000000e+08  8.516191e-03  5.298588e-03 -6.107076e-01  3.892902e-01 -6.107076e-01  3.892902e-01  8.516191e-03  5.298588e-03
  7.6000000e+08  1.327863e-02  5.332250e-03 -3.854813e-01  6.078483e-01 -3.854813e-01  6.078483e-01  1.327863e-02  5.332250e-03
  7.8000000e+08  1.625220e-02  1.761661e-03 -9.067860e-02  7.096053e-01 -9.067860e-02  7.096053e-01  1.625220e-02  1.761661e-03
  8.0000000e+08  1.538569e-02 -2.754327e-03  2.175477e-01  6.769513e-01  2.175477e-01  6.769513e-01  1.538569e-02 -2.754327e-03
  8.2000000e+08  1.137204e-02 -4.984930e-03  4.812460e-01  5.176388e-01  4.812460e-01  5.176388e-01  1.137204e-02 -4.984930e-03
  8.4000000e+08  7.079897e-03 -3.397039e-03  6.514673e-01  2.630441e-01  6.514673e-01  2.630441e-01  7.079897e-03 -3.397039e-03
  8.6000000e+08  5.485544e-03  8.263109e-04  6.973388e-01 -3.791524e-02  6.973388e-01 -3.791524e-02  5.485544e-03  8.263109e-04
  8.8000000e+08  7.589755e-03  4.693912e-03  6.117230e-01 -3.281492e-01  6.117230e-01 -3.281492e-01  7.589755e-03  4.693912e-03
  9.0000000e+08  1.177691e-02  5.552710e-03  4.123091e-01 -5.532821e-01  4.123091e-01 -5.532821e-01  1.177691e-02  5.552710e-03
  9.2000000e+08  1.502419e-02  2.933682e-03  1.379310e-01 -6.718789e-01  1.379310e-01 -6.718789e-01  1.502419e-02  2.933682e-03
  9.4000000e+08  1.505844e-02 -1.186056e-03 -1.590468e-01 -6.630164e-01 -1.590468e-01 -6.630164e-01  1.505844e-02 -1.186056e-03
  9.6000000e+08  1.192364e-02 -3.839042e-03 -4.226913e-01 -5.298787e-01 -4.226913e-01 -5.298787e-01  1.192364e-02 -3.839042e-03
  9.8000000e+08  7.882625e-03 -3.172579e-03 -6.039526e-01 -2.988689e-01 -6.039526e-01 -2.988689e-01  7.882625e-03 -3.172579e-03
  9.9999999e+08  5.769383e-03  2.854433e-04 -6.697574e-01 -1.445540e-02 -6.697574e-01 -1.445540e-02  5.769383e-03  2.854433e-04
  1.0200000e+09  6.986236e-03  4.063235e-03 -6.090863e-01  2.693425e-01 -6.090863e-01  2.693425e-01  6.986236e-03  4.063235e-03
  1.0400000e+09  1.056000e-02  5.533730e-03 -4.348325e-01  4.992506e-01 -4.348325e-01  4.992506e-01  1.056000e-02  5.533730e-03
  1.0600000e+09  1.389199e-02  3.762571e-03 -1.810648e-01  6.327860e-01 -1.810648e-01  6.327860e-01  1.389199e-02  3.762571e-03
  1.0800000e+09  1.462747e-02  1.156080e-04  1.036827e-01  6.460788e-01  1.036827e-01  6.460788e-01  1.462747e-02  1.156080e-04
  1.1000000e+09  1.230053e-02 -2.764087e-03  3.656847e-01  5.380566e-01  3.656847e-01  5.380566e-01  1.230053e-02 -2.764087e-03
  1.1200000e+09  8.608645e-03 -2.845849e-03  5.560932e-01  3.303559e-01  5.560932e-01  3.303559e-01  8.608645e-03 -2.845849e-03
  1.1400000e+09  6.162542e-03 -1.203639e-04  6.400012e-01  6.305477e-02  6.400012e-01  6.305477e-02  6.162542e-03 -1.203639e-04
  1.1600000e+09  6.627589e-03  3.447597e-03  6.028682e-01 -2.130073e-01  6.028682e-01 -2.130073e-01  6.627589e-03  3.447597e-03
  1.1800000e+09  9.577983e-03  5.353065e-03  4.530659e-01 -4.459158e-01  4.530659e-01 -4.459158e-01  9.577983e-03  5.353065e-03
  1.2000000e+09  1.285226e-02  4.327053e-03  2.200293e-01 -5.924884e-01  2.200293e-01 -5.924884e-01  1.285226e-02  4.327053e-03
  1.2200000e+09  1.412008e-02  1.195439e-03 -5.156886e-02 -6.262735e-01 -5.156886e-02 -6.262735e-01  1.412008e-02  1.195439e-03
  1.2400000e+09  1.252488e-02 -1.758131e-03 -3.103898e-01 -5.422567e-01 -3.103898e-01 -5.422567e-01  1.252488e-02 -1.758131e-03
  1.2600000e+09  9.246768e-03 -2.436269e-03 -5.080806e-01 -3.575186e-01 -5.080806e-01 -3.575186e-01  9.246768e-03 -2.436269e-03
  1.2800000e+09  6.619607e-03 -3.979020e-04 -6.082587e-01 -1.078153e-01 -6.082587e-01 -1.078153e-01  6.619607e-03 -3.979020e-04
  1.3000000e+09  6.459058e-03  2.873795e-03 -5.932180e-01  1.592874e-01 -5.932180e-01  1.592874e-01  6.459058e-03  2.873795e-03
  1.3200000e+09  8.797297e-03  5.064922e-03 -4.670883e-01  3.934755e-01 -4.670883e-01  3.934755e-01  8.797297e-03  5.064922e-03
  1.3400000e+09  1.190622e-02  4.682065e-03 -2.548149e-01  5.512040e-01 -2.548149e-01  5.512040e-01  1.190622e-02  4.682065e-03
  1.3600000e+09  1.356025e-02  2.082775e-03  2.805423e-03  6.037996e-01  2.805423e-03  6.037996e-01  1.356025e-02  2.082775e-03
  1.3800000e+09  1.261624e-02 -8.243571e-04  2.569834e-01  5.426225e-01  2.569834e-01  5.426225e-01  1.261624e-02 -8.243571e-04
  1.4000000e+09  9.790331e-03 -1.963254e-03  4.601402e-01  3.804161e-01  4.601402e-01  3.804161e-01  9.790331e-03 -1.963254e-03
  1.4200000e+09  7.106658e-03 -5.564335e-04  5.747645e-01  1.486960e-01  5.747645e-01  1.486960e-01  7.106658e-03 -5.564335e-04
  1.4400000e+09  6.438719e-03  2.359538e-03  5.803353e-01 -1.083210e-01  5.803353e-01 -1.083210e-01  6.438719e-03  2.359538e-03
  1.4600000e+09  8.192389e-03  4.709643e-03  4.770243e-01 -3.421423e-01  4.770243e-01 -3.421423e-01  8.192389e-03  4.709643e-03
  1.4800000e+09  1.105621e-02  4.869502e-03  2.854458e-01 -5.091809e-01  2.854458e-01 -5.091809e-01  1.105621e-02  4.869502e-03
  1.5000000e+09  1.296929e-02  2.799455e-03  4.252492e-02 -5.788954e-01  4.252492e-02 -5.788954e-01  1.296929e-02  2.799455e-03
  1.5200000e+09  1.259304e-02  3.250937e-05 -2.056423e-01 -5.393381e-01 -2.056423e-01 -5.393381e-01  1.259304e-02  3.250937e-05
  1.5400000e+09  1.023646e-02 -1.445560e-03 -4.125129e-01 -3.991427e-01 -4.125129e-01 -3.991427e-01  1.023646e-02 -1.445560e-03
  1.5600000e+09  7.597630e-03 -6.070883e-04 -5.397800e-01 -1.856809e-01 -5.397800e-01 -1.856809e-01  7.597630e-03 -6.070883e-04
  1.5800000e+09  6.532551e-03  1.916079e-03 -5.644528e-01  6.023440e-02 -5.644528e-01  6.023440e-02  6.532551e-03  1.916079e-03
  1.6000000e+09  7.741813e-03  4.318400e-03 -4.830328e-01  2.921310e-01 -4.830328e-01  2.921310e-01  7.741813e-03  4.318400e-03
  1.6200000e+09  1.030410e-02  4.923372e-03 -3.119755e-01  4.666825e-01 -3.119755e-01  4.666825e-01  1.030410e-02  4.923372e-03
  1.6400000e+09  1.236608e-02  3.363637e-03 -8.435941e-02  5.518236e-01 -8.435941e-02  5.518236e-01  1.236608e-02  3.363637e-03
  1.6600000e+09  1.247308e-02  8.079871e-04  1.565349e-01  5.326169e-01  1.565349e-01  5.326169e-01  1.247308e-02  8.079871e-04
  1.6800000e+09  1.058547e-02 -9.008156e-04  3.654430e-01  4.138220e-01  3.654430e-01  4.138220e-01  1.058547e-02 -9.008156e-04
  1.7000000e+09  8.072375e-03 -5.623271e-04  5.035809e-01  2.187786e-01  5.035809e-01  2.187786e-01  8.072375e-03 -5.623271e-04
  1.7200000e+09  6.711956e-03  1.549766e-03  5.458255e-01 -1.513743e-02  5.458255e-01 -1.513743e-02  6.711956e-03  1.549766e-03
  1.7400000e+09  7.426314e-03  3.915690e-03  4.852986e-01 -2.436500e-01  4.852986e-01 -2.436500e-01  7.426314e-03  3.915690e-03
  1.7600000e+09  9.650521e-03  4.872416e-03  3.344833e-01 -4.239768e-01  3.344833e-01 -4.239768e-01  9.650521e-03  4.872416e-03
  1.7800000e+09  1.176711e-02  3.791680e-03  1.226565e-01 -5.228612e-01  1.226565e-01 -5.228612e-01  1.176711e-02  3.791680e-03
  1.8000000e+09  1.227359e-02  1.498741e-03 -1.098163e-01 -5.226932e-01 -1.098163e-01 -5.226932e-01  1.227359e-02  1.498741e-03
  1.8200000e+09  1.084036e-02 -3.451701e-04 -3.191708e-01 -4.246013e-01 -3.191708e-01 -4.246013e-01  1.084036e-02 -3.451701e-04
  1.8400000e+09  8.515517e-03 -4.354514e-04 -4.664486e-01 -2.480212e-01 -4.664486e-01 -2.480212e-01  8.515517e-03 -4.354514e-04
  1.8600000e+09  6.952465e-03  1.263069e-03 -5.247224e-01 -2.687923e-02 -5.247224e-01 -2.687923e-02  6.952465e-03  1.263069e-03
  1.8800000e+09  7.227926e-03  3.520771e-03 -4.840276e-01  1.968963e-01 -4.840276e-01  1.968963e-01  7.227926e-03  3.520771e-03
  1.9000000e+09  9.094497e-03  4.741478e-03 -3.530720e-01  3.813296e-01 -3.530720e-01  3.813296e-01  9.094497e-03  4.741478e-03
  1.9200000e+09  1.118645e-02  4.099060e-03 -1.573966e-01  4.922927e-01 -1.573966e-01  4.922927e-01  1.118645e-02  4.099060e-03
  1.9400000e+09  1.201111e-02  2.103005e-03  6.562464e-02  5.098164e-01  6.562464e-02  5.098164e-01  1.201111e-02  2.103005e-03
  1.9600000e+09  1.100633e-02  2.069604e-04  2.739274e-01  4.316485e-01  2.739274e-01  4.316485e-01  1.100633e-02  2.069604e-04
  1.9800000e+09  8.915691e-03 -2.401559e-04  4.286639e-01  2.734629e-01  4.286639e-01  2.734629e-01  8.915691e-03 -2.401559e-04
  2.0000000e+09  7.233027e-03  1.055351e-03  5.014216e-01  6.574539e-02  5.014216e-01  6.574539e-02  7.233027e-03  1.055351e-03
  2.0200000e+09  7.129583e-03  3.148567e-03  4.794412e-01 -1.520515e-01  4.794412e-01 -1.520515e-01  7.129583e-03  3.148567e-03
  2.0400000e+09  8.633401e-03  4.552238e-03  3.678650e-01 -3.389995e-01  3.678650e-01 -3.389995e-01  8.633401e-03  4.552238e-03
  2.0600000e+09  1.063577e-02  4.300766e-03  1.885819e-01 -4.604041e-01  1.885819e-01 -4.604041e-01  1.063577e-02  4.300766e-03
  2.0800000e+09  1.170137e-02  2.620738e-03 -2.407899e-02 -4.942466e-01 -2.407899e-02 -4.942466e-01  1.170137e-02  2.620738e-03
  2.1000000e+09  1.109033e-02  7.430595e-04 -2.299306e-01 -4.351488e-01 -2.299306e-01 -4.351488e-01  1.109033e-02  7.430595e-04
  2.1200000e+09  9.264978e-03  9.872976e-06 -3.905028e-01 -2.951792e-01 -3.905028e-01 -2.951792e-01  9.264978e-03  9.872976e-06
  2.1400000e+09  7.535601e-03  9.234913e-04 -4.762047e-01 -1.014121e-01 -4.762047e-01 -1.014121e-01  7.535601e-03  9.234913e-04
  2.1600000e+09  7.114998e-03  2.810302e-03 -4.717739e-01  1.092797e-01 -4.717739e-01  1.092797e-01  7.114998e-03  2.810302e-03
  2.1800000e+09  8.263033e-03  4.323621e-03 -3.790044e-01  2.972340e-01 -3.790044e-01  2.972340e-01  8.263033e-03  4.323621e-03
  2.2000000e+09  1.012441e-02  4.411409e-03 -2.162359e-01  4.274796e-01 -2.162359e-01  4.274796e-01  1.012441e-02  4.411409e-03
  2.2200000e+09  1.135901e-02  3.053596e-03 -1.472180e-02  4.762504e-01 -1.472180e-02  4.762504e-01  1.135901e-02  3.053596e-03
  2.2400000e+09  1.110062e-02  1.252605e-03  1.873828e-01  4.353017e-01  1.873828e-01  4.353017e-01  1.110062e-02  1.252605e-03
  2.2600000e+09  9.558451e-03  3.013095e-04  3.522328e-01  3.132649e-01  3.522328e-01  3.132649e-01  9.558451e-03  3.013095e-04
  2.2800000e+09  7.844896e-03  8.624229e-04  4.493543e-01  1.338519e-01  4.493543e-01  1.338519e-01  7.844896e-03  8.624229e-04
  2.3000000e+09  7.168699e-03  2.513991e-03  4.612692e-01 -6.872568e-02  4.612692e-01 -6.872568e-02  7.168699e-03  2.513991e-03
  2.3200000e+09  7.977799e-03  4.072026e-03  3.866488e-01 -2.562673e-01  3.866488e-01 -2.562673e-01  7.977799e-03  4.072026e-03
  2.3400000e+09  9.659415e-03  4.445190e-03  2.404027e-01 -3.937975e-01  2.404027e-01 -3.937975e-01  9.659415e-03  4.445190e-03
  2.3600000e+09  1.099746e-02  3.404810e-03  5.069990e-02 -4.560981e-01  5.069990e-02 -4.560981e-01  1.099746e-02  3.404810e-03
  2.3800000e+09  1.104637e-02  1.727099e-03 -1.464685e-01 -4.323184e-01 -1.464685e-01 -4.323184e-01  1.104637e-02  1.727099e-03
  2.4000000e+09  9.793759e-03  6.214888e-04 -3.141101e-01 -3.278330e-01 -3.141101e-01 -3.278330e-01  9.793759e-03  6.214888e-04
  2.4200000e+09  8.148188e-03  8.656086e-04 -4.211498e-01 -1.630582e-01 -4.211498e-01 -1.630582e-01  8.148188e-03  8.656086e-04
  2.4400000e+09  7.276122e-03  2.264844e-03 -4.481769e-01  3.051374e-02 -4.481769e-01  3.051374e-02  7.276122e-03  2.264844e-03
  2.4600000e+09  7.770943e-03  3.811482e-03 -3.909712e-01  2.163176e-01 -3.909712e-01  2.163176e-01  7.770943e-03  3.811482e-03
  2.4800000e+09  9.245698e-03  4.415784e-03 -2.611462e-01  3.596282e-01 -2.611462e-01  3.596282e-01  9.245698e-03  4.415784e-03
  2.5000000e+09  1.062874e-02  3.678997e-03 -8.379859e-02  4.340607e-01 -8.379859e-02  4.340607e-01  1.062874e-02  3.678997e-03
  2.5200000e+09  1.093730e-02  2.160035e-03  1.073534e-01  4.264200e-01  1.073534e-01  4.264200e-01  1.093730e-02  2.160035e-03
  2.5400000e+09  9.970757e-03  9.586537e-04  2.763781e-01  3.390132e-01  2.763781e-01  3.390132e-01  9.970757e-03  9.586537e-04
  2.5600000e+09  8.435158e-03  9.254657e-04  3.918660e-01  1.890452e-01  3.918660e-01  1.890452e-01  8.435158e-03  9.254657e-04
  2.5800000e+09  7.423731e-03  2.065644e-03  4.327512e-01  5.252458e-03  4.327512e-01  5.252458e-03  7.423731e-03  2.065644e-03
  2.6000000e+09  7.634803e-03  3.553762e-03  3.921571e-01 -1.775861e-01  3.921571e-01 -1.775861e-01  7.634803e-03  3.553762e-03
  2.6200000e+09  8.886163e-03  4.336191e-03  2.785485e-01 -3.252317e-01  2.785485e-01 -3.252317e-01  8.886163e-03  4.336191e-03
  2.6400000e+09  1.026341e-02  3.881922e-03  1.139821e-01 -4.104075e-01  1.139821e-01 -4.104075e-01  1.026341e-02  3.881922e-03
  2.6600000e+09  1.078332e-02  2.546821e-03 -7.018355e-02 -4.178344e-01 -7.018355e-02 -4.178344e-01  1.078332e-02  2.546821e-03
  2.6800000e+09  1.009114e-02  1.302147e-03 -2.392650e-01 -3.469496e-01 -2.392650e-01 -3.469496e-01  1.009114e-02  1.302147e-03
  2.7000000e+09  8.697740e-03  1.033747e-03 -3.617700e-01 -2.118466e-01 -3.617700e-01 -2.118466e-01  8.697740e-03  1.033747e-03
  2.7200000e+09  7.599145e-03  1.917088e-03 -4.152477e-01 -3.849024e-02 -4.152477e-01 -3.849024e-02  7.599145e-03  1.917088e-03
  2.7400000e+09  7.561086e-03  3.308495e-03 -3.904022e-01  1.402556e-01 -3.904022e-01  1.402556e-01  7.561086e-03  3.308495e-03
  2.7600000e+09  8.581907e-03  4.218587e-03 -2.927088e-01  2.908557e-01 -2.927088e-01  2.908557e-01  8.581907e-03  4.218587e-03
  2.7800000e+09  9.910457e-03  4.020253e-03 -1.412353e-01  3.854040e-01 -1.412353e-01  3.854040e-01  9.910457e-03  4.020253e-03
  2.8000000e+09  1.059427e-02  2.884659e-03  3.508485e-02  4.067948e-01  3.508485e-02  4.067948e-01  1.059427e-02  2.884659e-03
  2.8200000e+09  1.015812e-02  1.642553e-03  2.029829e-01  3.517997e-01  2.029829e-01  3.517997e-01  1.015812e-02  1.642553e-03
  2.8400000e+09  8.929947e-03  1.181882e-03  3.311200e-01  2.315149e-01  3.311200e-01  2.315149e-01  8.929947e-03  1.181882e-03
  2.8600000e+09  7.791230e-03  1.818115e-03  3.959216e-01  6.913768e-02  3.959216e-01  6.913768e-02  7.791230e-03  1.818115e-03
  2.8800000e+09  7.541129e-03  3.083287e-03  3.859105e-01 -1.044901e-01  3.859105e-01 -1.044901e-01  7.541129e-03  3.083287e-03
  2.9000000e+09  8.332425e-03  4.074188e-03  3.037419e-01 -2.567344e-01  3.037419e-01 -2.567344e-01  8.332425e-03  4.074188e-03
  2.9200000e+09  9.577298e-03  4.101304e-03  1.655627e-01 -3.593099e-01  1.655627e-01 -3.593099e-01  9.577298e-03  4.101304e-03
  2.9400000e+09  1.037962e-02  3.172391e-03 -2.162832e-03 -3.935374e-01 -2.162832e-03 -3.935374e-01  1.037962e-02  3.172391e-03
  2.9600000e+09  1.017609e-02  1.971784e-03 -1.677268e-01 -3.537320e-01 -1.677268e-01 -3.537320e-01  1.017609e-02  1.971784e-03
  2.9800000e+09  9.127706e-03  1.361269e-03 -3.001634e-01 -2.481199e-01 -3.001634e-01 -2.481199e-01  9.127706e-03  1.361269e-03
  3.0000000e+09  7.990183e-03  1.766227e-03 -3.750257e-01 -9.715325e-02 -3.750257e-01 -9.715325e-02  7.990183e-03  1.766227e-03
  3.0200000e+09  7.566149e-03  2.883851e-03 -3.788926e-01  7.043392e-02 -3.788926e-01  7.043392e-02  7.566149e-03  2.883851e-03
  3.0400000e+09  8.135829e-03  3.913132e-03 -3.117765e-01  2.230872e-01 -3.117765e-01  2.230872e-01  8.135829e-03  3.913132e-03
  3.0600000e+09  9.269785e-03  4.132785e-03 -1.869879e-01  3.323775e-01 -1.869879e-01  3.323775e-01  9.269785e-03  4.132785e-03
  3.0800000e+09  1.014831e-02  3.410322e-03 -2.849721e-02  3.782997e-01 -2.849721e-02  3.782997e-01  1.014831e-02  3.410322e-03
  3.1000000e+09  1.015030e-02  2.283130e-03  1.336740e-01  3.529249e-01  1.336740e-01  3.529249e-01  1.015030e-02  2.283130e-03
  3.1200000e+09  9.288660e-03  1.563532e-03  2.691353e-01  2.617476e-01  2.691353e-01  2.617476e-01  9.288660e-03  1.563532e-03
  3.1400000e+09  8.187568e-03  1.757782e-03  3.528087e-01  1.225151e-01  3.528087e-01  1.225151e-01  8.187568e-03  1.757782e-03
  3.1600000e+09  7.627471e-03  2.714159e-03  3.695637e-01 -3.821201e-02  3.695637e-01 -3.821201e-02  7.627471e-03  2.714159e-03
  3.1800000e+09  7.989085e-03  3.744396e-03  3.169540e-01 -1.901176e-01  3.169540e-01 -1.901176e-01  7.989085e-03  3.744396e-03
  3.2000000e+09  8.992262e-03  4.122564e-03  2.055520e-01 -3.048500e-01  2.055520e-01 -3.048500e-01  8.992262e-03  4.122564e-03
  3.2200000e+09  9.908534e-03  3.600022e-03  5.682988e-02 -3.613185e-01  5.682988e-02 -3.613185e-01  9.908534e-03  3.600022e-03
  3.2400000e+09  1.008663e-02  2.571256e-03 -1.009835e-01 -3.495644e-01 -1.009835e-01 -3.495644e-01  1.008663e-02  2.571256e-03
  3.2600000e+09  9.411969e-03  1.780730e-03 -2.382579e-01 -2.724988e-01 -2.382579e-01 -2.724988e-01  9.411969e-03  1.780730e-03
  3.2800000e+09  8.376335e-03  1.788278e-03 -3.295136e-01 -1.452204e-01 -3.295136e-01 -1.452204e-01  8.376335e-03  1.788278e-03
  3.3000000e+09  7.716730e-03  2.576605e-03 -3.581417e-01  7.929629e-03 -3.581417e-01  7.929629e-03  7.716730e-03  2.576605e-03
  3.3200000e+09  7.888241e-03  3.575744e-03 -3.194264e-01  1.580126e-01 -3.194264e-01  1.580126e-01  7.888241e-03  3.575744e-03
  3.3400000e+09  8.747659e-03  4.078459e-03 -2.213134e-01  2.769603e-01 -2.213134e-01  2.769603e-01  8.747659e-03  4.078459e-03
  3.3600000e+09  9.667617e-03  3.744125e-03 -8.278924e-02  3.428285e-01 -8.278924e-02  3.428285e-01  9.667617e-03  3.744125e-03
  3.3800000e+09  9.991272e-03  2.832169e-03  6.979564e-02  3.438428e-01  6.979564e-02  3.438428e-01  9.991272e-03  2.832169e-03
  3.4000000e+09  9.498105e-03  2.005530e-03  2.077389e-01  2.804877e-01  2.077389e-01  2.804877e-01  9.498105e-03  2.005530e-03
  3.4200000e+09  8.550796e-03  1.852617e-03  3.053761e-01  1.652844e-01  3.053761e-01  1.652844e-01  8.550796e-03  1.852617e-03
  3.4400000e+09  7.826040e-03  2.472185e-03  3.448457e-01  2.032729e-02  3.448457e-01  2.032729e-02  7.826040e-03  2.472185e-03
  3.4600000e+09  7.828653e-03  3.413701e-03  3.193551e-01 -1.269425e-01  3.193551e-01 -1.269425e-01  7.828653e-03  3.413701e-03
  3.4800000e+09  8.537591e-03  4.008042e-03  2.343455e-01 -2.489299e-01  2.343455e-01 -2.489299e-01  8.537591e-03  4.008042e-03
  3.5000000e+09  9.431951e-03  3.846117e-03  1.063481e-01 -3.230605e-01  1.063481e-01 -3.230605e-01  9.431951e-03  3.846117e-03
  3.5200000e+09  9.870556e-03  3.063147e-03 -4.023234e-02 -3.359566e-01 -4.023234e-02 -3.359566e-01  9.870556e-03  3.063147e-03
  3.5400000e+09  9.548642e-03  2.231331e-03 -1.777714e-01 -2.858403e-01 -1.777714e-01 -2.858403e-01  9.548642e-03  2.231331e-03
  3.5600000e+09  8.706579e-03  1.945342e-03 -2.806235e-01 -1.827392e-01 -2.806235e-01 -1.827392e-01  8.706579e-03  1.945342e-03
  3.5800000e+09  7.948137e-03  2.400680e-03 -3.298945e-01 -4.649177e-02 -3.298945e-01 -4.649177e-02  7.948137e-03  2.400680e-03
  3.6000000e+09  7.805205e-03  3.263567e-03 -3.169089e-01  9.706003e-02 -3.169089e-01  9.706003e-02  7.805205e-03  3.263567e-03
  3.6200000e+09  8.362499e-03  3.918479e-03 -2.447361e-01  2.209680e-01 -2.447361e-01  2.209680e-01  8.362499e-03  3.918479e-03
  3.6400000e+09  9.206922e-03  3.910134e-03 -1.274974e-01  3.022398e-01 -1.274974e-01  3.022398e-01  9.206922e-03  3.910134e-03
  3.6600000e+09  9.730706e-03  3.262654e-03  1.239702e-02  3.261056e-01  1.239702e-02  3.261056e-01  9.730706e-03  3.262654e-03
  3.6800000e+09  9.566046e-03  2.452360e-03  1.485328e-01  2.886929e-01  1.485328e-01  2.886929e-01  9.566046e-03  2.452360e-03
  3.7000000e+09  8.840556e-03  2.060851e-03  2.554736e-01  1.976330e-01  2.554736e-01  1.976330e-01  8.840556e-03  2.060851e-03
  3.7200000e+09  8.076480e-03  2.360845e-03  3.135046e-01  7.051525e-02  3.135046e-01  7.051525e-02  8.076480e-03  2.360845e-03
  3.7400000e+09  7.812507e-03  3.129450e-03  3.122626e-01 -6.850044e-02  3.122626e-01 -6.850044e-02  7.812507e-03  3.129450e-03
  3.7600000e+09  8.221792e-03  3.816402e-03  2.525857e-01 -1.932704e-01  2.525857e-01 -1.932704e-01  8.221792e-03  3.816402e-03
  3.7800000e+09  8.996901e-03  3.940763e-03  1.462450e-01 -2.805857e-01  1.462450e-01 -2.805857e-01  8.996901e-03  3.940763e-03
  3.8000000e+09  9.577697e-03  3.430221e-03  1.362510e-02 -3.144904e-01  1.362510e-02 -3.144904e-01  9.577697e-03  3.430221e-03
  3.8200000e+09  9.553472e-03  2.663726e-03 -1.201846e-01 -2.891906e-01 -1.201846e-01 -2.891906e-01  9.553472e-03  2.663726e-03
  3.8400000e+09  8.950745e-03  2.193586e-03 -2.301332e-01 -2.100284e-01 -2.301332e-01 -2.100284e-01  8.950745e-03  2.193586e-03
  3.8600000e+09  8.205330e-03  2.350598e-03 -2.958893e-01 -9.236696e-02 -2.958893e-01 -9.236696e-02  8.205330e-03  2.350598e-03
  3.8800000e+09  7.845080e-03  3.014327e-03 -3.055957e-01  4.138159e-02 -3.055957e-01  4.138159e-02  7.845080e-03  3.014327e-03
  3.9000000e+09  8.114000e-03  3.707797e-03 -2.580063e-01  1.660191e-01 -2.580063e-01  1.660191e-01  8.114000e-03  3.707797e-03
  3.9200000e+09  8.805250e-03  3.942863e-03 -1.626150e-01  2.583094e-01 -1.626150e-01  2.583094e-01  8.805250e-03  3.942863e-03
  3.9400000e+09  9.417102e-03  3.566318e-03 -3.776663e-02  3.013118e-01 -3.776663e-02  3.013118e-01  9.417102e-03  3.566318e-03
  3.9600000e+09  9.514575e-03  2.861443e-03  9.287244e-02  2.874862e-01  9.287244e-02  2.874862e-01  9.514575e-03  2.861443e-03
  3.9800000e+09  9.036205e-03  2.338191e-03  2.047980e-01  2.200018e-01  2.047980e-01  2.200018e-01  9.036205e-03  2.338191e-03
  4.0000000e+09  8.329793e-03  2.367205e-03  2.772572e-01  1.120331e-01  2.772572e-01  1.120331e-01  8.329793e-03  2.367205e-03
  4.0200000e+09  7.897518e-03  2.920126e-03  2.970904e-01 -1.580398e-02  2.970904e-01 -1.580398e-02  7.897518e-03  2.920126e-03
  4.0400000e+09  8.036937e-03  3.597943e-03  2.611198e-01 -1.393816e-01  2.611198e-01 -1.393816e-01  8.036937e-03  3.597943e-03
  4.0600000e+09  8.634371e-03  3.921390e-03  1.766467e-01 -2.356133e-01  1.766467e-01 -2.356133e-01  8.634371e-03  3.921390e-03
  4.0800000e+09  9.253991e-03  3.672222e-03  5.997745e-02 -2.867689e-01  5.997745e-02 -2.867689e-01  9.253991e-03  3.672222e-03
  4.1000000e+09  9.453330e-03  3.042423e-03 -6.672533e-02 -2.837379e-01 -6.672533e-02 -2.837379e-01  9.453330e-03  3.042423e-03
  4.1200000e+09  9.096908e-03  2.489645e-03 -1.796513e-01 -2.276415e-01 -1.796513e-01 -2.276415e-01  9.096908e-03  2.489645e-03
  4.1400000e+09  8.445839e-03  2.407455e-03 -2.578109e-01 -1.295160e-01 -2.578109e-01 -1.295160e-01  8.445839e-03  2.407455e-03
  4.1600000e+09  7.964628e-03  2.847826e-03 -2.869303e-01 -8.148959e-03 -2.869303e-01 -8.148959e-03  7.964628e-03  2.847826e-03
  4.1800000e+09  7.987853e-03  3.491356e-03 -2.620565e-01  1.135107e-01 -2.620565e-01  1.135107e-01  7.987853e-03  3.491356e-03
  4.2000000e+09  8.485754e-03  3.881252e-03 -1.883931e-01  2.126903e-01 -1.883931e-01  2.126903e-01  8.485754e-03  3.881252e-03
  4.2200000e+09  9.092849e-03  3.749870e-03 -8.022412e-02  2.710579e-01 -8.022412e-02  2.710579e-01  9.092849e-03  3.749870e-03
  4.2400000e+09  9.373867e-03  3.204452e-03  4.185624e-02  2.781086e-01  4.185624e-02  2.781086e-01  9.373867e-03  3.204452e-03
  4.2600000e+09  9.133613e-03  2.643365e-03  1.548636e-01  2.330468e-01  1.548636e-01  2.330468e-01  9.133613e-03  2.643365e-03
  4.2800000e+09  8.550291e-03  2.467823e-03  2.377461e-01  1.448332e-01  2.377461e-01  1.448332e-01  8.550291e-03  2.467823e-03
  4.3000000e+09  8.041544e-03  2.797560e-03  2.752995e-01  3.041047e-02  2.752995e-01  3.041047e-02  8.041544e-03  2.797560e-03
  4.3200000e+09  7.963591e-03  3.391775e-03  2.609542e-01 -8.854420e-02  2.609542e-01 -8.854420e-02  7.963591e-03  3.391775e-03
  4.3400000e+09  8.360067e-03  3.827180e-03  1.979203e-01 -1.897227e-01  1.979203e-01 -1.897227e-01  8.360067e-03  3.827180e-03
  4.3600000e+09  8.937521e-03  3.801721e-03  9.848916e-02 -2.543710e-01  9.848916e-02 -2.543710e-01  8.937521e-03  3.801721e-03
  4.3800000e+09  9.280329e-03  3.346133e-03 -1.836196e-02 -2.707642e-01 -1.836196e-02 -2.707642e-01  9.280329e-03  3.346133e-03
  4.4000000e+09  9.147726e-03  2.795283e-03 -1.305922e-01 -2.363264e-01 -1.305922e-01 -2.363264e-01  9.147726e-03  2.795283e-03
  4.4200000e+09  8.640798e-03  2.544623e-03 -2.172505e-01 -1.580166e-01 -2.172505e-01 -1.580166e-01  8.640798e-03  2.544623e-03
  4.4400000e+09  8.123818e-03  2.768738e-03 -2.623806e-01 -5.092997e-02 -2.623806e-01 -5.092997e-02  8.123818e-03  2.768738e-03
  4.4600000e+09  7.960729e-03  3.302167e-03 -2.579562e-01  6.460487e-02 -2.579562e-01  6.460487e-02  7.960729e-03  3.302167e-03
  4.4800000e+09  8.257237e-03  3.763619e-03 -2.053055e-01  1.668817e-01 -2.053055e-01  1.668817e-01  8.257237e-03  3.763619e-03
  4.5000000e+09  8.791189e-03  3.830616e-03 -1.147702e-01  2.368952e-01 -1.147702e-01  2.368952e-01  8.791189e-03  3.830616e-03
  4.5200000e+09  9.176746e-03  3.466821e-03 -3.676537e-03  2.618722e-01 -3.676537e-03  2.618722e-01  9.176746e-03  3.466821e-03
  4.5400000e+09  9.141175e-03  2.941899e-03  1.069808e-01  2.375973e-01  1.069808e-01  2.375973e-01  9.141175e-03  2.941899e-03
  4.5600000e+09  8.715782e-03  2.634139e-03  1.965030e-01  1.691109e-01  1.965030e-01  1.691109e-01  8.715782e-03  2.634139e-03
  4.5800000e+09  8.207491e-03  2.760165e-03  2.483538e-01  6.967246e-02  2.483538e-01  6.967246e-02  8.207491e-03  2.760165e-03
  4.6000000e+09  7.975710e-03  3.224746e-03  2.532102e-01 -4.180031e-02  2.532102e-01 -4.180031e-02  7.975710e-03  3.224746e-03
  4.6200000e+09  8.176556e-03  3.694644e-03  2.106367e-01 -1.443266e-01  2.106367e-01 -1.443266e-01  8.176556e-03  3.694644e-03